Name,Headgroup Atom,Headgroup Atom Index,Tailgroup Atom,Tailgroup Atom Index,HG/TG distance,Experimental Density,Smiles String
MC3,N1x,43,C37x,36,26.949608461497743,,CCCCC\C=C/C\C=C/CCCCCCCCC(CCCCCCCC\C=C/C\C=C/CCCCC)OC(=O)CCCN(C)C
DSPC,N1x,31,C44x,54,31.635116631678933,,CCCCCCCCCCCCCCCCCC(=O)OC[C@H](COP(=O)([O-])OCC[N+](C)(C)C)OC(=O)CCCCCCCCCCCCCCCCC
CHOL,O1x,31,C7x,7,17.182765911806186,,C[C@H](CCCC(C)C)[C@H]1CC[C@@H]2[C@@]1(CC[C@H]3[C@H]2CC=C4[C@@]3(CC[C@@H](C4)O)C)C
PEG2000_C_DMG,C28x,36,C42x,52,41.160552405977924,,CCCCCCCCCCCCCC(=O)OCC(COC(=O)NCCCOCCOCCOCCOC)OC(=O)CCCCCCCCCCCCC